# vtk DataFile Version 2.0
wasora vtk output
ASCII
DATASET UNSTRUCTURED_GRID
POINTS 378 double
0 0 0
4.6 0 0
5 0 0
9 0 0
9 9 0
0 9 0
0 5 0
0 4.6 0
0 9 1
0 5 1
0 0 1
5 0 1
9 0 1
9 9 1
4.6 0 1
0 4.6 1
0 7.52185 0
0 6.42328 0
0 5.60681 0
0 4.8 0
0 3.93389 0
0 3.01512 0
0 1.74788 0
1.74788 0 0
3.01512 0 0
3.93389 0 0
4.8 0 0
5.60681 0 0
6.42328 0 0
7.52185 0 0
9 4.5 0
4.5 9 0
0.559822 4.96856 0
1.1126 4.87464 0
1.6514 4.71942 0
2.16942 4.50484 0
2.66016 4.23362 0
3.11745 3.90916 0
3.53553 3.53553 0
3.90916 3.11745 0
4.23362 2.66016 0
4.50484 2.16942 0
4.71942 1.6514 0
4.87464 1.1126 0
4.96856 0.559822 0
0.515037 4.57108 0
1.0236 4.48467 0
1.51928 4.34186 0
1.99587 4.14446 0
2.44735 3.89493 0
2.86805 3.59642 0
3.25269 3.25269 0
3.59642 2.86805 0
3.89493 2.44735 0
4.14446 1.99587 0
4.34186 1.51928 0
4.48467 1.0236 0
4.57108 0.515037 0
0 7.52185 1
0 6.42328 1
0 5.60681 1
0.559822 4.96856 1
1.1126 4.87464 1
1.6514 4.71942 1
2.16942 4.50484 1
2.66016 4.23362 1
3.11745 3.90916 1
3.53553 3.53553 1
3.90916 3.11745 1
4.23362 2.66016 1
4.50484 2.16942 1
4.71942 1.6514 1
4.87464 1.1126 1
4.96856 0.559822 1
5.60681 0 1
6.42328 0 1
7.52185 0 1
9 4.5 1
4.5 9 1
0 9 0.5
0 5 0.5
5 0 0.5
9 0 0.5
9 9 0.5
4.8 0 1
4.57108 0.515037 1
4.48467 1.0236 1
4.34186 1.51928 1
4.14446 1.99587 1
3.89493 2.44735 1
3.59642 2.86805 1
3.25269 3.25269 1
2.86805 3.59642 1
2.44735 3.89493 1
1.99587 4.14446 1
1.51928 4.34186 1
1.0236 4.48467 1
0.515037 4.57108 1
0 4.8 1
4.6 0 0.5
0 4.6 0.5
0 3.93389 1
0 3.01512 1
0 1.74788 1
1.74788 0 1
3.01512 0 1
3.93389 0 1
0 0 0.5
6.67269 2.16047 0
1.78727 6.22828 0
4.76326 6.47093 0
6.23171 4.00221 0
5.80446 1.04694 0
1.04531 5.69777 0
7.73151 2.22016 0
2.29692 5.45481 0
5.4288 2.53651 0
4.6489 4.75802 0
0.827756 6.38605 0
6.66649 0.863074 0
1.71646 5.52847 0
5.68276 1.82745 0
4.76867 3.47881 0
2.80832 5.06274 0
4.82673 2.85959 0
4.10886 3.95617 0
6.66499 6.49105 0
3.52192 4.62447 0
3.57852 4.16027 0
5.64778 0.51505 0
0.517733 5.59071 0
3.46787 5.49977 0
2.46077 6.72904 0
0.461298 6.10105 0
6.22028 0.454988 0
4.77988 0.358286 0
0.358286 4.77988 0
4.15177 2.39705 0
4.58107 1.4131 0
3.51428 3.26081 0
4.46268 1.75145 0
4.74052 0.714493 0
3.96106 2.70057 0
3.26081 3.51428 0
0.714493 4.74052 0
2.39705 4.15177 0
2.70057 3.96106 0
1.75145 4.46268 0
1.4131 4.58107 0
1.06862 4.68193 0
2.08366 4.32676 0
2.99421 3.75462 0
3.75462 2.99421 0
4.32676 2.08366 0
4.68193 1.06862 0
1.92049 1.82686 0
1.17412 3.19546 0
3.18907 1.371 0
2.36653 2.63306 0
3.07249 2.19736 0
0.953862 3.60353 0
3.73308 0.812665 0
1.05671 1.05671 0
0.900731 2.07592 0
3.72026 1.54098 0
2.13234 0.858704 0
1.80894 3.4924 0
3.10425 2.76997 0
1.66384 2.48245 0
2.34732 3.51014 0
3.57792 1.99892 0
2.67154 3.1274 0
4.00624 1.13608 0
2.96999 0.645451 0
0.619543 2.87264 0
2.46438 1.7035 0
0.732645 4.09045 0
4.23981 0.837288 0
3.4262 2.54565 0
1.18502 3.95369 0
3.54565 0.486039 0
0.539597 3.63334 0
0.415894 4.19847 0
4.18884 0.4161 0
0 7.52185 0.5
0 6.42328 0.5
0 5.60681 0.5
0.559822 4.96856 0.5
1.1126 4.87464 0.5
1.6514 4.71942 0.5
2.16942 4.50484 0.5
2.66016 4.23362 0.5
3.11745 3.90916 0.5
3.53553 3.53553 0.5
3.90916 3.11745 0.5
4.23362 2.66016 0.5
4.50484 2.16942 0.5
4.71942 1.6514 0.5
4.87464 1.1126 0.5
4.96856 0.559822 0.5
5.60681 0 0.5
6.42328 0 0.5
7.52185 0 0.5
9 4.5 0.5
4.5 9 0.5
6.67269 2.16047 1
1.78727 6.22828 1
4.76326 6.47093 1
6.23171 4.00221 1
5.80446 1.04694 1
1.04531 5.69777 1
7.73151 2.22016 1
2.29692 5.45481 1
5.4288 2.53651 1
4.6489 4.75802 1
0.827756 6.38605 1
6.66649 0.863074 1
1.71646 5.52847 1
5.68276 1.82745 1
4.76867 3.47881 1
2.80832 5.06274 1
4.82673 2.85959 1
4.10886 3.95617 1
6.66499 6.49105 1
3.52192 4.62447 1
3.57852 4.16027 1
5.64778 0.51505 1
0.517733 5.59071 1
3.46787 5.49977 1
2.46077 6.72904 1
0.461298 6.10105 1
6.22028 0.454988 1
4.8 0 0.5
0.515037 4.57108 0.5
1.0236 4.48467 0.5
1.51928 4.34186 0.5
1.99587 4.14446 0.5
2.44735 3.89493 0.5
2.86805 3.59642 0.5
3.25269 3.25269 0.5
3.59642 2.86805 0.5
3.89493 2.44735 0.5
4.14446 1.99587 0.5
4.34186 1.51928 0.5
4.48467 1.0236 0.5
4.57108 0.515037 0.5
0 4.8 0.5
4.77988 0.358286 1
0.358286 4.77988 1
4.15177 2.39705 1
4.58107 1.4131 1
3.51428 3.26081 1
4.46268 1.75145 1
4.74052 0.714493 1
3.96106 2.70057 1
3.26081 3.51428 1
0.714493 4.74052 1
2.39705 4.15177 1
2.70057 3.96106 1
1.75145 4.46268 1
1.4131 4.58107 1
1.06862 4.68193 1
2.08366 4.32676 1
2.99421 3.75462 1
3.75462 2.99421 1
4.32676 2.08366 1
4.68193 1.06862 1
0 3.93389 0.5
0 3.01512 0.5
0 1.74788 0.5
1.74788 0 0.5
3.01512 0 0.5
3.93389 0 0.5
1.92049 1.82686 1
1.17412 3.19546 1
3.18907 1.371 1
2.36653 2.63306 1
3.07249 2.19736 1
0.953862 3.60353 1
3.73308 0.812665 1
1.05671 1.05671 1
0.900731 2.07592 1
3.72026 1.54098 1
2.13234 0.858704 1
1.80894 3.4924 1
3.10425 2.76997 1
1.66384 2.48245 1
2.34732 3.51014 1
3.57792 1.99892 1
2.67154 3.1274 1
4.00624 1.13608 1
2.96999 0.645451 1
0.619543 2.87264 1
2.46438 1.7035 1
0.732645 4.09045 1
4.23981 0.837288 1
3.4262 2.54565 1
1.18502 3.95369 1
3.54565 0.486039 1
0.539597 3.63334 1
0.415894 4.19847 1
4.18884 0.4161 1
6.67269 2.16047 0.5
1.78727 6.22828 0.5
4.76326 6.47093 0.5
6.23171 4.00221 0.5
5.80446 1.04694 0.5
1.04531 5.69777 0.5
7.73151 2.22016 0.5
2.29692 5.45481 0.5
5.4288 2.53651 0.5
4.6489 4.75802 0.5
0.827756 6.38605 0.5
6.66649 0.863074 0.5
1.71646 5.52847 0.5
5.68276 1.82745 0.5
4.76867 3.47881 0.5
2.80832 5.06274 0.5
4.82673 2.85959 0.5
4.10886 3.95617 0.5
6.66499 6.49105 0.5
3.52192 4.62447 0.5
3.57852 4.16027 0.5
5.64778 0.51505 0.5
0.517733 5.59071 0.5
3.46787 5.49977 0.5
2.46077 6.72904 0.5
0.461298 6.10105 0.5
6.22028 0.454988 0.5
4.77988 0.358286 0.5
0.358286 4.77988 0.5
4.15177 2.39705 0.5
4.58107 1.4131 0.5
3.51428 3.26081 0.5
4.46268 1.75145 0.5
4.74052 0.714493 0.5
3.96106 2.70057 0.5
3.26081 3.51428 0.5
0.714493 4.74052 0.5
2.39705 4.15177 0.5
2.70057 3.96106 0.5
1.75145 4.46268 0.5
1.4131 4.58107 0.5
1.06862 4.68193 0.5
2.08366 4.32676 0.5
2.99421 3.75462 0.5
3.75462 2.99421 0.5
4.32676 2.08366 0.5
4.68193 1.06862 0.5
1.92049 1.82686 0.5
1.17412 3.19546 0.5
3.18907 1.371 0.5
2.36653 2.63306 0.5
3.07249 2.19736 0.5
0.953862 3.60353 0.5
3.73308 0.812665 0.5
1.05671 1.05671 0.5
0.900731 2.07592 0.5
3.72026 1.54098 0.5
2.13234 0.858704 0.5
1.80894 3.4924 0.5
3.10425 2.76997 0.5
1.66384 2.48245 0.5
2.34732 3.51014 0.5
3.57792 1.99892 0.5
2.67154 3.1274 0.5
4.00624 1.13608 0.5
2.96999 0.645451 0.5
0.619543 2.87264 0.5
2.46438 1.7035 0.5
0.732645 4.09045 0.5
4.23981 0.837288 0.5
3.4262 2.54565 0.5
1.18502 3.95369 0.5
3.54565 0.486039 0.5
0.539597 3.63334 0.5
0.415894 4.19847 0.5
4.18884 0.4161 0.5

CELLS 226 2034
8  44 129 112 43 199 323 306 198
8  199 323 306 198 73 226 209 72
8  32 33 113 130 187 188 307 324
8  187 188 307 324 61 62 210 227
8  44 2 27 129 199 81 200 323
8  199 81 200 323 73 11 74 226
8  32 130 18 6 187 324 186 80
8  187 324 186 80 61 227 60 9
8  114 30 111 108 308 203 305 302
8  308 203 305 302 211 77 208 205
8  35 115 120 34 190 309 314 189
8  190 309 314 189 64 212 217 63
8  41 42 121 116 196 197 315 310
8  196 197 315 310 70 71 218 213
8  39 40 124 122 194 195 318 316
8  194 195 318 316 68 69 221 219
8  113 33 34 120 307 188 189 314
8  307 188 189 314 210 62 63 217
8  112 121 42 43 306 315 197 198
8  306 315 197 198 209 218 71 72
8  16 17 133 118 184 185 327 312
8  184 185 327 312 58 59 230 215
8  29 119 134 28 202 313 328 201
8  202 313 328 201 76 216 231 75
8  124 116 111 122 318 310 305 316
8  318 310 305 316 221 213 208 219
8  122 125 38 39 316 319 193 194
8  316 319 193 194 219 222 67 68
8  115 35 36 123 309 190 191 317
8  309 190 191 317 212 64 65 220
8  116 124 40 41 310 318 195 196
8  310 318 195 196 213 221 69 70
8  117 111 126 110 311 305 320 304
8  311 305 320 304 214 208 223 207
8  4 31 110 126 83 204 304 320
8  83 204 304 320 13 78 207 223
8  4 126 111 30 83 320 305 203
8  83 320 305 203 13 223 208 77
8  16 118 109 132 184 312 303 326
8  184 312 303 326 58 215 206 229
8  29 114 108 119 202 308 302 313
8  202 308 302 313 76 211 205 216
8  125 122 111 117 319 316 305 311
8  319 316 305 311 222 219 208 214
8  111 116 121 108 305 310 315 302
8  305 310 315 302 208 213 218 205
8  120 109 118 113 314 303 312 307
8  314 303 312 307 217 206 215 210
8  121 112 119 108 315 306 313 302
8  315 306 313 302 218 209 216 205
8  37 38 125 128 192 193 319 322
8  192 193 319 322 66 67 222 225
8  17 18 130 133 185 186 324 327
8  185 186 324 327 59 60 227 230
8  28 134 129 27 201 328 323 200
8  201 328 323 200 75 231 226 74
8  36 37 128 127 191 192 322 321
8  191 192 322 321 65 66 225 224
8  123 131 132 115 317 325 326 309
8  317 325 326 309 220 228 229 212
8  119 112 129 134 313 306 323 328
8  313 306 323 328 216 209 226 231
8  118 133 130 113 312 327 324 307
8  312 327 324 307 215 230 227 210
8  120 115 132 109 314 309 326 303
8  314 309 326 303 217 212 229 206
8  36 127 131 123 191 321 325 317
8  191 321 325 317 65 224 228 220
8  127 128 125 117 321 322 319 311
8  321 322 319 311 224 225 222 214
8  127 117 110 131 321 311 304 325
8  321 311 304 325 224 214 207 228
8  31 132 131 110 204 326 325 304
8  204 326 325 304 78 229 228 207
8  29 3 30 114 202 82 203 308
8  202 82 203 308 76 12 77 211
8  16 132 31 5 184 326 204 79
8  184 326 204 79 58 229 78 8
8  153 137 53 54 347 331 241 242
8  347 331 241 242 265 249 89 88
8  154 138 55 56 348 332 243 244
8  348 332 243 244 266 250 87 86
8  138 42 140 55 332 197 334 243
8  332 197 334 243 250 71 252 87
8  152 139 51 52 346 333 239 240
8  346 333 239 240 264 251 91 90
8  153 54 55 140 347 242 243 334
8  347 242 243 334 265 88 87 252
8  154 56 57 141 348 244 245 335
8  348 244 245 335 266 86 85 253
8  152 52 53 142 346 240 241 336
8  346 240 241 336 264 90 89 254
8  141 57 135 44 335 245 329 199
8  335 245 329 199 253 85 247 73
8  142 53 137 40 336 241 331 195
8  336 241 331 195 254 89 249 69
8  151 50 51 143 345 238 239 337
8  345 238 239 337 263 92 91 255
8  143 51 139 38 337 239 333 193
8  337 239 333 193 255 91 251 67
8  149 144 45 46 343 338 233 234
8  343 338 233 234 261 256 97 96
8  144 32 136 45 338 187 330 233
8  338 187 330 233 256 61 248 97
8  150 48 49 145 344 236 237 339
8  344 236 237 339 262 94 93 257
8  145 49 146 36 339 237 340 191
8  339 237 340 191 257 93 258 65
8  151 146 49 50 345 340 237 238
8  345 340 237 238 263 258 93 92
8  150 147 47 48 344 341 235 236
8  344 341 235 236 262 259 95 94
8  149 46 47 148 343 234 235 342
8  343 234 235 342 261 96 95 260
8  148 47 147 34 342 235 341 189
8  342 235 341 189 260 95 259 63
8  44 135 26 2 199 329 232 81
8  199 329 232 81 73 247 84 11
8  32 6 19 136 187 80 246 330
8  187 80 246 330 61 9 98 248
8  144 149 33 32 338 343 188 187
8  338 343 188 187 256 261 62 61
8  148 34 33 149 342 189 188 343
8  342 189 188 343 260 63 62 261
8  147 150 35 34 341 344 190 189
8  341 344 190 189 259 262 64 63
8  145 36 35 150 339 191 190 344
8  339 191 190 344 257 65 64 262
8  146 151 37 36 340 345 192 191
8  340 345 192 191 258 263 66 65
8  143 38 37 151 337 193 192 345
8  337 193 192 345 255 67 66 263
8  139 152 39 38 333 346 194 193
8  333 346 194 193 251 264 68 67
8  142 40 39 152 336 195 194 346
8  336 195 194 346 254 69 68 264
8  137 153 41 40 331 347 196 195
8  331 347 196 195 249 265 70 69
8  140 42 41 153 334 197 196 347
8  334 197 196 347 252 71 70 265
8  138 154 43 42 332 348 198 197
8  332 348 198 197 250 266 72 71
8  141 44 43 154 335 199 198 348
8  335 199 198 348 253 73 72 266
8  1 26 135 57 99 232 329 245
8  99 232 329 245 14 84 247 85
8  136 19 7 45 330 246 100 233
8  330 246 100 233 248 98 15 97
8  164 170 159 157 358 364 353 351
8  358 364 353 351 282 288 277 275
8  156 168 158 166 350 362 352 360
8  350 362 352 360 274 286 276 284
8  23 24 173 165 270 271 367 359
8  270 271 367 359 104 105 291 283
8  157 161 172 164 351 355 366 358
8  351 355 366 358 275 279 290 282
8  20 181 176 182 267 375 370 376
8  267 375 370 376 101 299 294 300
8  169 49 48 166 363 237 236 360
8  363 237 236 360 287 93 94 284
8  157 159 158 175 351 353 352 369
8  351 353 352 369 275 277 276 293
8  168 155 175 158 362 349 369 352
8  362 349 369 352 286 273 293 276
8  168 156 174 163 362 350 368 357
8  362 350 368 357 286 274 292 281
8  165 162 0 23 359 356 107 270
8  359 356 107 270 283 280 10 104
8  173 157 175 165 367 351 369 359
8  367 351 369 359 291 275 293 283
8  163 22 0 162 357 269 107 356
8  357 269 107 356 281 103 10 280
8  180 25 183 161 374 272 377 355
8  374 272 377 355 298 106 301 279
8  175 155 162 165 369 349 356 359
8  369 349 356 359 293 273 280 283
8  168 163 162 155 362 357 356 349
8  362 357 356 349 286 281 280 273
8  172 55 54 164 366 243 242 358
8  366 243 242 358 290 87 88 282
8  179 166 48 47 373 360 236 235
8  373 360 236 235 297 284 94 95
8  53 170 164 54 241 364 358 242
8  241 364 358 242 89 288 282 88
8  171 169 166 158 365 363 360 352
8  365 363 360 352 289 287 284 276
8  167 51 50 171 361 239 238 365
8  361 239 238 365 285 91 92 289
8  171 158 159 167 365 352 353 361
8  365 352 353 361 289 276 277 285
8  178 52 51 167 372 240 239 361
8  372 240 239 361 296 90 91 285
8  179 160 156 166 373 354 350 360
8  373 354 350 360 297 278 274 284
8  171 50 49 169 365 238 237 363
8  365 238 237 363 289 92 93 287
8  45 7 20 182 233 100 267 376
8  233 100 267 376 97 15 101 300
8  57 183 25 1 245 377 272 99
8  245 377 272 99 85 301 106 14
8  170 53 52 178 364 241 240 372
8  364 241 240 372 288 89 90 296
8  179 176 181 160 373 370 375 354
8  373 370 375 354 297 294 299 278
8  177 56 55 172 371 244 243 366
8  371 244 243 366 295 86 87 290
8  176 179 47 46 370 373 235 234
8  370 373 235 234 294 297 95 96
8  182 176 46 45 376 370 234 233
8  376 370 234 233 300 294 96 97
8  167 159 170 178 361 353 364 372
8  361 353 364 372 285 277 288 296
8  183 57 56 177 377 245 244 371
8  377 245 244 371 301 85 86 295
8  180 161 157 173 374 355 351 367
8  374 355 351 367 298 279 275 291
8  181 174 156 160 375 368 350 354
8  375 368 350 354 299 292 274 278
8  172 161 183 177 366 355 377 371
8  366 355 377 371 290 279 301 295
8  173 24 25 180 367 271 272 374
8  367 271 272 374 291 105 106 298
8  174 181 20 21 368 375 267 268
8  368 375 267 268 292 299 101 102
8  22 163 174 21 269 357 368 268
8  269 357 368 268 103 281 292 102

CELL_TYPES 226
12
12
12
12
12
12
12
12
12
12
12
12
12
12
12
12
12
12
12
12
12
12
12
12
12
12
12
12
12
12
12
12
12
12
12
12
12
12
12
12
12
12
12
12
12
12
12
12
12
12
12
12
12
12
12
12
12
12
12
12
12
12
12
12
12
12
12
12
12
12
12
12
12
12
12
12
12
12
12
12
12
12
12
12
12
12
12
12
12
12
12
12
12
12
12
12
12
12
12
12
12
12
12
12
12
12
12
12
12
12
12
12
12
12
12
12
12
12
12
12
12
12
12
12
12
12
12
12
12
12
12
12
12
12
12
12
12
12
12
12
12
12
12
12
12
12
12
12
12
12
12
12
12
12
12
12
12
12
12
12
12
12
12
12
12
12
12
12
12
12
12
12
12
12
12
12
12
12
12
12
12
12
12
12
12
12
12
12
12
12
12
12
12
12
12
12
12
12
12
12
12
12
12
12
12
12
12
12
12
12
12
12
12
12
12
12
12
12
12
12
12
12
12
12
12
12
CELL_DATA 226
SCALARS pow double
LOOKUP_TABLE default
0.988917
0.988917
0.993909
0.993909
0.990452
0.990452
0.995387
0.995387
0.954789
0.954789
0.989484
0.989484
0.986336
0.986336
0.987169
0.987169
0.991574
0.991574
0.986738
0.986738
0.976384
0.976384
0.970493
0.970493
0.974329
0.974329
0.986227
0.986227
0.985985
0.985985
0.987046
0.987046
0.953834
0.953834
0.942563
0.942563
0.942578
0.942578
0.969617
0.969617
0.962372
0.962372
0.970236
0.970236
0.969527
0.969527
0.978929
0.978929
0.971989
0.971989
0.986602
0.986602
0.98481
0.98481
0.978877
0.978877
0.984881
0.984881
0.97289
0.97289
0.976662
0.976662
0.983416
0.983416
0.975899
0.975899
0.978866
0.978866
0.97445
0.97445
0.963961
0.963961
0.956353
0.956353
0.954906
0.954906
0.957935
0.957935
1.00398
1.00398
1.0044
1.0044
1.00156
1.00156
1.00265
1.00265
1.00433
1.00433
1.00527
1.00527
1.00352
1.00352
1.00246
1.00246
1.00085
1.00085
1.00365
1.00365
1.00015
1.00015
1.009
1.00899
1.00638
1.00638
1.00699
1.00699
1.00283
1.00283
1.00544
1.00544
1.00889
1.00889
1.00891
1.00891
1.0058
1.0058
0.999814
0.999814
1.00395
1.00395
1.00368
1.00368
1.00325
1.00325
1.00258
1.00258
1.00062
1.00062
0.998702
0.998702
0.997354
0.997354
0.997363
0.997363
0.997969
0.997969
0.998343
0.998343
0.99884
0.99884
0.999087
0.999086
0.999764
0.999764
1.00544
1.00544
1.00931
1.00931
1.07022
1.07022
1.08622
1.08622
1.10694
1.10694
1.07067
1.07067
1.06918
1.06918
1.05744
1.05744
1.08632
1.08632
1.09886
1.09886
1.09996
1.09996
1.12214
1.12214
1.09986
1.09986
1.1222
1.1222
1.07053
1.07053
1.11098
1.11098
1.11073
1.11073
1.05431
1.05431
1.06078
1.06078
1.05425
1.05425
1.07105
1.07105
1.05329
1.05329
1.06918
1.06918
1.0494
1.0494
1.07526
1.07526
1.05542
1.05542
1.0576
1.0576
1.05412
1.05412
1.05165
1.05165
1.07206
1.07206
1.05113
1.05113
1.0581
1.0581
1.05597
1.05597
1.05936
1.05936
1.0513
1.0513
1.08262
1.08262
1.08523
1.08523
1.06157
1.06157
1.08575
1.08574
1.08718
1.08718
1.10795
1.10795
SCALARS g double
LOOKUP_TABLE default
0
1
2
3
4
5
6
7
8
9
10
11
12
13
14
15
16
17
18
19
20
21
22
23
24
25
26
27
28
29
30
31
32
33
34
35
36
37
38
39
40
41
42
43
44
45
46
47
48
49
50
51
52
53
54
55
56
57
58
59
60
61
62
63
64
65
66
67
68
69
70
71
72
73
74
75
76
77
78
79
80
81
82
83
84
85
86
87
88
89
90
91
92
93
94
95
96
97
98
99
100
101
102
103
104
105
106
107
108
109
110
111
112
113
114
115
116
117
118
119
120
121
122
123
124
125
126
127
128
129
130
131
132
133
134
135
136
137
138
139
140
141
142
143
144
145
146
147
148
149
150
151
152
153
154
155
156
157
158
159
160
161
162
163
164
165
166
167
168
169
170
171
172
173
174
175
176
177
178
179
180
181
182
183
184
185
186
187
188
189
190
191
192
193
194
195
196
197
198
199
200
201
202
203
204
205
206
207
208
209
210
211
212
213
214
215
216
217
218
219
220
221
222
223
224
225
SCALARS pow double
LOOKUP_TABLE default
0.988917
0.988917
0.993909
0.993909
0.990452
0.990452
0.995387
0.995387
0.954789
0.954789
0.989484
0.989484
0.986336
0.986336
0.987169
0.987169
0.991574
0.991574
0.986738
0.986738
0.976384
0.976384
0.970493
0.970493
0.974329
0.974329
0.986227
0.986227
0.985985
0.985985
0.987046
0.987046
0.953834
0.953834
0.942563
0.942563
0.942578
0.942578
0.969617
0.969617
0.962372
0.962372
0.970236
0.970236
0.969527
0.969527
0.978929
0.978929
0.971989
0.971989
0.986602
0.986602
0.98481
0.98481
0.978877
0.978877
0.984881
0.984881
0.97289
0.97289
0.976662
0.976662
0.983416
0.983416
0.975899
0.975899
0.978866
0.978866
0.97445
0.97445
0.963961
0.963961
0.956353
0.956353
0.954906
0.954906
0.957935
0.957935
1.00398
1.00398
1.0044
1.0044
1.00156
1.00156
1.00265
1.00265
1.00433
1.00433
1.00527
1.00527
1.00352
1.00352
1.00246
1.00246
1.00085
1.00085
1.00365
1.00365
1.00015
1.00015
1.009
1.00899
1.00638
1.00638
1.00699
1.00699
1.00283
1.00283
1.00544
1.00544
1.00889
1.00889
1.00891
1.00891
1.0058
1.0058
0.999814
0.999814
1.00395
1.00395
1.00368
1.00368
1.00325
1.00325
1.00258
1.00258
1.00062
1.00062
0.998702
0.998702
0.997354
0.997354
0.997363
0.997363
0.997969
0.997969
0.998343
0.998343
0.99884
0.99884
0.999087
0.999086
0.999764
0.999764
1.00544
1.00544
1.00931
1.00931
1.07022
1.07022
1.08622
1.08622
1.10694
1.10694
1.07067
1.07067
1.06918
1.06918
1.05744
1.05744
1.08632
1.08632
1.09886
1.09886
1.09996
1.09996
1.12214
1.12214
1.09986
1.09986
1.1222
1.1222
1.07053
1.07053
1.11098
1.11098
1.11073
1.11073
1.05431
1.05431
1.06078
1.06078
1.05425
1.05425
1.07105
1.07105
1.05329
1.05329
1.06918
1.06918
1.0494
1.0494
1.07526
1.07526
1.05542
1.05542
1.0576
1.0576
1.05412
1.05412
1.05165
1.05165
1.07206
1.07206
1.05113
1.05113
1.0581
1.0581
1.05597
1.05597
1.05936
1.05936
1.0513
1.0513
1.08262
1.08262
1.08523
1.08523
1.06157
1.06157
1.08575
1.08574
1.08718
1.08718
1.10795
1.10795
SCALARS g double
LOOKUP_TABLE default
0
1
2
3
4
5
6
7
8
9
10
11
12
13
14
15
16
17
18
19
20
21
22
23
24
25
26
27
28
29
30
31
32
33
34
35
36
37
38
39
40
41
42
43
44
45
46
47
48
49
50
51
52
53
54
55
56
57
58
59
60
61
62
63
64
65
66
67
68
69
70
71
72
73
74
75
76
77
78
79
80
81
82
83
84
85
86
87
88
89
90
91
92
93
94
95
96
97
98
99
100
101
102
103
104
105
106
107
108
109
110
111
112
113
114
115
116
117
118
119
120
121
122
123
124
125
126
127
128
129
130
131
132
133
134
135
136
137
138
139
140
141
142
143
144
145
146
147
148
149
150
151
152
153
154
155
156
157
158
159
160
161
162
163
164
165
166
167
168
169
170
171
172
173
174
175
176
177
178
179
180
181
182
183
184
185
186
187
188
189
190
191
192
193
194
195
196
197
198
199
200
201
202
203
204
205
206
207
208
209
210
211
212
213
214
215
216
217
218
219
220
221
222
223
224
225
